V -t * -v 1.0a5 -a 0
A -t * -n 1 -p 0 -o 0x7fffffff -c 30 -a 1
A -t * -h 1 -m 1073741823 -s 0
n -t * -a 4 -s 4 -S UP -v circle -c black -i black
n -t * -a 0 -s 0 -S UP -v circle -c black -i black
n -t * -a 5 -s 5 -S UP -v circle -c black -i black
n -t * -a 1 -s 1 -S UP -v circle -c black -i black
n -t * -a 6 -s 6 -S UP -v circle -c black -i black
n -t * -a 2 -s 2 -S UP -v circle -c black -i black
n -t * -a 7 -s 7 -S UP -v circle -c black -i black
n -t * -a 3 -s 3 -S UP -v circle -c black -i black
l -t * -s 0 -d 1 -S UP -r 10000000 -D 0.001 -c black -o right-down
l -t * -s 4 -d 1 -S UP -r 10000000 -D 0.001 -c black -o right-up
l -t * -s 1 -d 2 -S UP -r 1500000 -D 0.001 -c black -o right
l -t * -s 2 -d 3 -S UP -r 10000000 -D 0.001 -c black -o right-up
l -t * -s 2 -d 5 -S UP -r 10000000 -D 0.001 -c black -o right-down
l -t * -s 1 -d 6 -S UP -r 10000000 -D 0.001 -c black -o left
l -t * -s 2 -d 7 -S UP -r 10000000 -D 0.001 -c black -o right
+ -t 0.5 -s 0 -d 1 -p cbr -e 1000 -c 0 -i 0 -a 0 -x {0.0 3.0 0 ------- null}
- -t 0.5 -s 0 -d 1 -p cbr -e 1000 -c 0 -i 0 -a 0 -x {0.0 3.0 0 ------- null}
h -t 0.5 -s 0 -d 1 -p cbr -e 1000 -c 0 -i 0 -a 0 -x {0.0 3.0 -1 ------- null}
r -t 0.5018 -s 0 -d 1 -p cbr -e 1000 -c 0 -i 0 -a 0 -x {0.0 3.0 0 ------- null}
+ -t 0.5018 -s 1 -d 2 -p cbr -e 1000 -c 0 -i 0 -a 0 -x {0.0 3.0 0 ------- null}
- -t 0.5018 -s 1 -d 2 -p cbr -e 1000 -c 0 -i 0 -a 0 -x {0.0 3.0 0 ------- null}
h -t 0.5018 -s 1 -d 2 -p cbr -e 1000 -c 0 -i 0 -a 0 -x {0.0 3.0 -1 ------- null}
+ -t 0.508 -s 0 -d 1 -p cbr -e 1000 -c 0 -i 1 -a 0 -x {0.0 3.0 1 ------- null}
- -t 0.508 -s 0 -d 1 -p cbr -e 1000 -c 0 -i 1 -a 0 -x {0.0 3.0 1 ------- null}
h -t 0.508 -s 0 -d 1 -p cbr -e 1000 -c 0 -i 1 -a 0 -x {0.0 3.0 -1 ------- null}
r -t 0.508133333333333 -s 1 -d 2 -p cbr -e 1000 -c 0 -i 0 -a 0 -x {0.0 3.0 0 ------- null}
+ -t 0.508133333333333 -s 2 -d 3 -p cbr -e 1000 -c 0 -i 0 -a 0 -x {0.0 3.0 0 ------- null}
- -t 0.508133333333333 -s 2 -d 3 -p cbr -e 1000 -c 0 -i 0 -a 0 -x {0.0 3.0 0 ------- null}
h -t 0.508133333333333 -s 2 -d 3 -p cbr -e 1000 -c 0 -i 0 -a 0 -x {0.0 3.0 -1 ------- null}
r -t 0.5098 -s 0 -d 1 -p cbr -e 1000 -c 0 -i 1 -a 0 -x {0.0 3.0 1 ------- null}
+ -t 0.5098 -s 1 -d 2 -p cbr -e 1000 -c 0 -i 1 -a 0 -x {0.0 3.0 1 ------- null}
- -t 0.5098 -s 1 -d 2 -p cbr -e 1000 -c 0 -i 1 -a 0 -x {0.0 3.0 1 ------- null}
h -t 0.5098 -s 1 -d 2 -p cbr -e 1000 -c 0 -i 1 -a 0 -x {0.0 3.0 -1 ------- null}
r -t 0.509933333333333 -s 2 -d 3 -p cbr -e 1000 -c 0 -i 0 -a 0 -x {0.0 3.0 0 ------- null}
+ -t 0.516 -s 0 -d 1 -p cbr -e 1000 -c 0 -i 2 -a 0 -x {0.0 3.0 2 ------- null}
- -t 0.516 -s 0 -d 1 -p cbr -e 1000 -c 0 -i 2 -a 0 -x {0.0 3.0 2 ------- null}
h -t 0.516 -s 0 -d 1 -p cbr -e 1000 -c 0 -i 2 -a 0 -x {0.0 3.0 -1 ------- null}
r -t 0.516133333333333 -s 1 -d 2 -p cbr -e 1000 -c 0 -i 1 -a 0 -x {0.0 3.0 1 ------- null}
+ -t 0.516133333333333 -s 2 -d 3 -p cbr -e 1000 -c 0 -i 1 -a 0 -x {0.0 3.0 1 ------- null}
- -t 0.516133333333333 -s 2 -d 3 -p cbr -e 1000 -c 0 -i 1 -a 0 -x {0.0 3.0 1 ------- null}
h -t 0.516133333333333 -s 2 -d 3 -p cbr -e 1000 -c 0 -i 1 -a 0 -x {0.0 3.0 -1 ------- null}
r -t 0.5178 -s 0 -d 1 -p cbr -e 1000 -c 0 -i 2 -a 0 -x {0.0 3.0 2 ------- null}
+ -t 0.5178 -s 1 -d 2 -p cbr -e 1000 -c 0 -i 2 -a 0 -x {0.0 3.0 2 ------- null}
- -t 0.5178 -s 1 -d 2 -p cbr -e 1000 -c 0 -i 2 -a 0 -x {0.0 3.0 2 ------- null}
h -t 0.5178 -s 1 -d 2 -p cbr -e 1000 -c 0 -i 2 -a 0 -x {0.0 3.0 -1 ------- null}
r -t 0.517933333333333 -s 2 -d 3 -p cbr -e 1000 -c 0 -i 1 -a 0 -x {0.0 3.0 1 ------- null}
+ -t 0.524 -s 0 -d 1 -p cbr -e 1000 -c 0 -i 3 -a 0 -x {0.0 3.0 3 ------- null}
- -t 0.524 -s 0 -d 1 -p cbr -e 1000 -c 0 -i 3 -a 0 -x {0.0 3.0 3 ------- null}
h -t 0.524 -s 0 -d 1 -p cbr -e 1000 -c 0 -i 3 -a 0 -x {0.0 3.0 -1 ------- null}
r -t 0.524133333333333 -s 1 -d 2 -p cbr -e 1000 -c 0 -i 2 -a 0 -x {0.0 3.0 2 ------- null}
+ -t 0.524133333333333 -s 2 -d 3 -p cbr -e 1000 -c 0 -i 2 -a 0 -x {0.0 3.0 2 ------- null}
- -t 0.524133333333333 -s 2 -d 3 -p cbr -e 1000 -c 0 -i 2 -a 0 -x {0.0 3.0 2 ------- null}
h -t 0.524133333333333 -s 2 -d 3 -p cbr -e 1000 -c 0 -i 2 -a 0 -x {0.0 3.0 -1 ------- null}
r -t 0.5258 -s 0 -d 1 -p cbr -e 1000 -c 0 -i 3 -a 0 -x {0.0 3.0 3 ------- null}
+ -t 0.5258 -s 1 -d 2 -p cbr -e 1000 -c 0 -i 3 -a 0 -x {0.0 3.0 3 ------- null}
- -t 0.5258 -s 1 -d 2 -p cbr -e 1000 -c 0 -i 3 -a 0 -x {0.0 3.0 3 ------- null}
h -t 0.5258 -s 1 -d 2 -p cbr -e 1000 -c 0 -i 3 -a 0 -x {0.0 3.0 -1 ------- null}
r -t 0.525933333333333 -s 2 -d 3 -p cbr -e 1000 -c 0 -i 2 -a 0 -x {0.0 3.0 2 ------- null}
+ -t 0.532 -s 0 -d 1 -p cbr -e 1000 -c 0 -i 4 -a 0 -x {0.0 3.0 4 ------- null}
- -t 0.532 -s 0 -d 1 -p cbr -e 1000 -c 0 -i 4 -a 0 -x {0.0 3.0 4 ------- null}
h -t 0.532 -s 0 -d 1 -p cbr -e 1000 -c 0 -i 4 -a 0 -x {0.0 3.0 -1 ------- null}
r -t 0.532133333333333 -s 1 -d 2 -p cbr -e 1000 -c 0 -i 3 -a 0 -x {0.0 3.0 3 ------- null}
+ -t 0.532133333333333 -s 2 -d 3 -p cbr -e 1000 -c 0 -i 3 -a 0 -x {0.0 3.0 3 ------- null}
- -t 0.532133333333333 -s 2 -d 3 -p cbr -e 1000 -c 0 -i 3 -a 0 -x {0.0 3.0 3 ------- null}
h -t 0.532133333333333 -s 2 -d 3 -p cbr -e 1000 -c 0 -i 3 -a 0 -x {0.0 3.0 -1 ------- null}
r -t 0.5338 -s 0 -d 1 -p cbr -e 1000 -c 0 -i 4 -a 0 -x {0.0 3.0 4 ------- null}
+ -t 0.5338 -s 1 -d 2 -p cbr -e 1000 -c 0 -i 4 -a 0 -x {0.0 3.0 4 ------- null}
- -t 0.5338 -s 1 -d 2 -p cbr -e 1000 -c 0 -i 4 -a 0 -x {0.0 3.0 4 ------- null}
h -t 0.5338 -s 1 -d 2 -p cbr -e 1000 -c 0 -i 4 -a 0 -x {0.0 3.0 -1 ------- null}
r -t 0.533933333333333 -s 2 -d 3 -p cbr -e 1000 -c 0 -i 3 -a 0 -x {0.0 3.0 3 ------- null}
+ -t 0.54 -s 0 -d 1 -p cbr -e 1000 -c 0 -i 5 -a 0 -x {0.0 3.0 5 ------- null}
- -t 0.54 -s 0 -d 1 -p cbr -e 1000 -c 0 -i 5 -a 0 -x {0.0 3.0 5 ------- null}
h -t 0.54 -s 0 -d 1 -p cbr -e 1000 -c 0 -i 5 -a 0 -x {0.0 3.0 -1 ------- null}
r -t 0.540133333333333 -s 1 -d 2 -p cbr -e 1000 -c 0 -i 4 -a 0 -x {0.0 3.0 4 ------- null}
+ -t 0.540133333333333 -s 2 -d 3 -p cbr -e 1000 -c 0 -i 4 -a 0 -x {0.0 3.0 4 ------- null}
- -t 0.540133333333333 -s 2 -d 3 -p cbr -e 1000 -c 0 -i 4 -a 0 -x {0.0 3.0 4 ------- null}
h -t 0.540133333333333 -s 2 -d 3 -p cbr -e 1000 -c 0 -i 4 -a 0 -x {0.0 3.0 -1 ------- null}
r -t 0.5418 -s 0 -d 1 -p cbr -e 1000 -c 0 -i 5 -a 0 -x {0.0 3.0 5 ------- null}
+ -t 0.5418 -s 1 -d 2 -p cbr -e 1000 -c 0 -i 5 -a 0 -x {0.0 3.0 5 ------- null}
- -t 0.5418 -s 1 -d 2 -p cbr -e 1000 -c 0 -i 5 -a 0 -x {0.0 3.0 5 ------- null}
h -t 0.5418 -s 1 -d 2 -p cbr -e 1000 -c 0 -i 5 -a 0 -x {0.0 3.0 -1 ------- null}
r -t 0.541933333333333 -s 2 -d 3 -p cbr -e 1000 -c 0 -i 4 -a 0 -x {0.0 3.0 4 ------- null}
+ -t 0.548 -s 0 -d 1 -p cbr -e 1000 -c 0 -i 6 -a 0 -x {0.0 3.0 6 ------- null}
- -t 0.548 -s 0 -d 1 -p cbr -e 1000 -c 0 -i 6 -a 0 -x {0.0 3.0 6 ------- null}
h -t 0.548 -s 0 -d 1 -p cbr -e 1000 -c 0 -i 6 -a 0 -x {0.0 3.0 -1 ------- null}
r -t 0.548133333333333 -s 1 -d 2 -p cbr -e 1000 -c 0 -i 5 -a 0 -x {0.0 3.0 5 ------- null}
+ -t 0.548133333333333 -s 2 -d 3 -p cbr -e 1000 -c 0 -i 5 -a 0 -x {0.0 3.0 5 ------- null}
- -t 0.548133333333333 -s 2 -d 3 -p cbr -e 1000 -c 0 -i 5 -a 0 -x {0.0 3.0 5 ------- null}
h -t 0.548133333333333 -s 2 -d 3 -p cbr -e 1000 -c 0 -i 5 -a 0 -x {0.0 3.0 -1 ------- null}
r -t 0.5498 -s 0 -d 1 -p cbr -e 1000 -c 0 -i 6 -a 0 -x {0.0 3.0 6 ------- null}
+ -t 0.5498 -s 1 -d 2 -p cbr -e 1000 -c 0 -i 6 -a 0 -x {0.0 3.0 6 ------- null}
- -t 0.5498 -s 1 -d 2 -p cbr -e 1000 -c 0 -i 6 -a 0 -x {0.0 3.0 6 ------- null}
h -t 0.5498 -s 1 -d 2 -p cbr -e 1000 -c 0 -i 6 -a 0 -x {0.0 3.0 -1 ------- null}
r -t 0.549933333333333 -s 2 -d 3 -p cbr -e 1000 -c 0 -i 5 -a 0 -x {0.0 3.0 5 ------- null}
+ -t 0.556 -s 0 -d 1 -p cbr -e 1000 -c 0 -i 7 -a 0 -x {0.0 3.0 7 ------- null}
- -t 0.556 -s 0 -d 1 -p cbr -e 1000 -c 0 -i 7 -a 0 -x {0.0 3.0 7 ------- null}
h -t 0.556 -s 0 -d 1 -p cbr -e 1000 -c 0 -i 7 -a 0 -x {0.0 3.0 -1 ------- null}
r -t 0.556133333333333 -s 1 -d 2 -p cbr -e 1000 -c 0 -i 6 -a 0 -x {0.0 3.0 6 ------- null}
+ -t 0.556133333333333 -s 2 -d 3 -p cbr -e 1000 -c 0 -i 6 -a 0 -x {0.0 3.0 6 ------- null}
- -t 0.556133333333333 -s 2 -d 3 -p cbr -e 1000 -c 0 -i 6 -a 0 -x {0.0 3.0 6 ------- null}
h -t 0.556133333333333 -s 2 -d 3 -p cbr -e 1000 -c 0 -i 6 -a 0 -x {0.0 3.0 -1 ------- null}
r -t 0.5578 -s 0 -d 1 -p cbr -e 1000 -c 0 -i 7 -a 0 -x {0.0 3.0 7 ------- null}
+ -t 0.5578 -s 1 -d 2 -p cbr -e 1000 -c 0 -i 7 -a 0 -x {0.0 3.0 7 ------- null}
- -t 0.5578 -s 1 -d 2 -p cbr -e 1000 -c 0 -i 7 -a 0 -x {0.0 3.0 7 ------- null}
h -t 0.5578 -s 1 -d 2 -p cbr -e 1000 -c 0 -i 7 -a 0 -x {0.0 3.0 -1 ------- null}
r -t 0.557933333333333 -s 2 -d 3 -p cbr -e 1000 -c 0 -i 6 -a 0 -x {0.0 3.0 6 ------- null}
+ -t 0.564 -s 0 -d 1 -p cbr -e 1000 -c 0 -i 8 -a 0 -x {0.0 3.0 8 ------- null}
- -t 0.564 -s 0 -d 1 -p cbr -e 1000 -c 0 -i 8 -a 0 -x {0.0 3.0 8 ------- null}
h -t 0.564 -s 0 -d 1 -p cbr -e 1000 -c 0 -i 8 -a 0 -x {0.0 3.0 -1 ------- null}
r -t 0.564133333333333 -s 1 -d 2 -p cbr -e 1000 -c 0 -i 7 -a 0 -x {0.0 3.0 7 ------- null}
+ -t 0.564133333333333 -s 2 -d 3 -p cbr -e 1000 -c 0 -i 7 -a 0 -x {0.0 3.0 7 ------- null}
- -t 0.564133333333333 -s 2 -d 3 -p cbr -e 1000 -c 0 -i 7 -a 0 -x {0.0 3.0 7 ------- null}
h -t 0.564133333333333 -s 2 -d 3 -p cbr -e 1000 -c 0 -i 7 -a 0 -x {0.0 3.0 -1 ------- null}
r -t 0.5658 -s 0 -d 1 -p cbr -e 1000 -c 0 -i 8 -a 0 -x {0.0 3.0 8 ------- null}
+ -t 0.5658 -s 1 -d 2 -p cbr -e 1000 -c 0 -i 8 -a 0 -x {0.0 3.0 8 ------- null}
- -t 0.5658 -s 1 -d 2 -p cbr -e 1000 -c 0 -i 8 -a 0 -x {0.0 3.0 8 ------- null}
h -t 0.5658 -s 1 -d 2 -p cbr -e 1000 -c 0 -i 8 -a 0 -x {0.0 3.0 -1 ------- null}
r -t 0.565933333333333 -s 2 -d 3 -p cbr -e 1000 -c 0 -i 7 -a 0 -x {0.0 3.0 7 ------- null}
+ -t 0.572 -s 0 -d 1 -p cbr -e 1000 -c 0 -i 9 -a 0 -x {0.0 3.0 9 ------- null}
- -t 0.572 -s 0 -d 1 -p cbr -e 1000 -c 0 -i 9 -a 0 -x {0.0 3.0 9 ------- null}
h -t 0.572 -s 0 -d 1 -p cbr -e 1000 -c 0 -i 9 -a 0 -x {0.0 3.0 -1 ------- null}
r -t 0.572133333333333 -s 1 -d 2 -p cbr -e 1000 -c 0 -i 8 -a 0 -x {0.0 3.0 8 ------- null}
+ -t 0.572133333333333 -s 2 -d 3 -p cbr -e 1000 -c 0 -i 8 -a 0 -x {0.0 3.0 8 ------- null}
- -t 0.572133333333333 -s 2 -d 3 -p cbr -e 1000 -c 0 -i 8 -a 0 -x {0.0 3.0 8 ------- null}
h -t 0.572133333333333 -s 2 -d 3 -p cbr -e 1000 -c 0 -i 8 -a 0 -x {0.0 3.0 -1 ------- null}
r -t 0.5738 -s 0 -d 1 -p cbr -e 1000 -c 0 -i 9 -a 0 -x {0.0 3.0 9 ------- null}
+ -t 0.5738 -s 1 -d 2 -p cbr -e 1000 -c 0 -i 9 -a 0 -x {0.0 3.0 9 ------- null}
- -t 0.5738 -s 1 -d 2 -p cbr -e 1000 -c 0 -i 9 -a 0 -x {0.0 3.0 9 ------- null}
h -t 0.5738 -s 1 -d 2 -p cbr -e 1000 -c 0 -i 9 -a 0 -x {0.0 3.0 -1 ------- null}
r -t 0.573933333333333 -s 2 -d 3 -p cbr -e 1000 -c 0 -i 8 -a 0 -x {0.0 3.0 8 ------- null}
+ -t 0.58 -s 0 -d 1 -p cbr -e 1000 -c 0 -i 10 -a 0 -x {0.0 3.0 10 ------- null}
- -t 0.58 -s 0 -d 1 -p cbr -e 1000 -c 0 -i 10 -a 0 -x {0.0 3.0 10 ------- null}
h -t 0.58 -s 0 -d 1 -p cbr -e 1000 -c 0 -i 10 -a 0 -x {0.0 3.0 -1 ------- null}
r -t 0.580133333333333 -s 1 -d 2 -p cbr -e 1000 -c 0 -i 9 -a 0 -x {0.0 3.0 9 ------- null}
+ -t 0.580133333333333 -s 2 -d 3 -p cbr -e 1000 -c 0 -i 9 -a 0 -x {0.0 3.0 9 ------- null}
- -t 0.580133333333333 -s 2 -d 3 -p cbr -e 1000 -c 0 -i 9 -a 0 -x {0.0 3.0 9 ------- null}
h -t 0.580133333333333 -s 2 -d 3 -p cbr -e 1000 -c 0 -i 9 -a 0 -x {0.0 3.0 -1 ------- null}
r -t 0.5818 -s 0 -d 1 -p cbr -e 1000 -c 0 -i 10 -a 0 -x {0.0 3.0 10 ------- null}
+ -t 0.5818 -s 1 -d 2 -p cbr -e 1000 -c 0 -i 10 -a 0 -x {0.0 3.0 10 ------- null}
- -t 0.5818 -s 1 -d 2 -p cbr -e 1000 -c 0 -i 10 -a 0 -x {0.0 3.0 10 ------- null}
h -t 0.5818 -s 1 -d 2 -p cbr -e 1000 -c 0 -i 10 -a 0 -x {0.0 3.0 -1 ------- null}
r -t 0.581933333333333 -s 2 -d 3 -p cbr -e 1000 -c 0 -i 9 -a 0 -x {0.0 3.0 9 ------- null}
+ -t 0.588 -s 0 -d 1 -p cbr -e 1000 -c 0 -i 11 -a 0 -x {0.0 3.0 11 ------- null}
- -t 0.588 -s 0 -d 1 -p cbr -e 1000 -c 0 -i 11 -a 0 -x {0.0 3.0 11 ------- null}
h -t 0.588 -s 0 -d 1 -p cbr -e 1000 -c 0 -i 11 -a 0 -x {0.0 3.0 -1 ------- null}
r -t 0.588133333333333 -s 1 -d 2 -p cbr -e 1000 -c 0 -i 10 -a 0 -x {0.0 3.0 10 ------- null}
+ -t 0.588133333333333 -s 2 -d 3 -p cbr -e 1000 -c 0 -i 10 -a 0 -x {0.0 3.0 10 ------- null}
- -t 0.588133333333333 -s 2 -d 3 -p cbr -e 1000 -c 0 -i 10 -a 0 -x {0.0 3.0 10 ------- null}
h -t 0.588133333333333 -s 2 -d 3 -p cbr -e 1000 -c 0 -i 10 -a 0 -x {0.0 3.0 -1 ------- null}
r -t 0.5898 -s 0 -d 1 -p cbr -e 1000 -c 0 -i 11 -a 0 -x {0.0 3.0 11 ------- null}
+ -t 0.5898 -s 1 -d 2 -p cbr -e 1000 -c 0 -i 11 -a 0 -x {0.0 3.0 11 ------- null}
- -t 0.5898 -s 1 -d 2 -p cbr -e 1000 -c 0 -i 11 -a 0 -x {0.0 3.0 11 ------- null}
h -t 0.5898 -s 1 -d 2 -p cbr -e 1000 -c 0 -i 11 -a 0 -x {0.0 3.0 -1 ------- null}
r -t 0.589933333333333 -s 2 -d 3 -p cbr -e 1000 -c 0 -i 10 -a 0 -x {0.0 3.0 10 ------- null}
+ -t 0.596 -s 0 -d 1 -p cbr -e 1000 -c 0 -i 12 -a 0 -x {0.0 3.0 12 ------- null}
- -t 0.596 -s 0 -d 1 -p cbr -e 1000 -c 0 -i 12 -a 0 -x {0.0 3.0 12 ------- null}
h -t 0.596 -s 0 -d 1 -p cbr -e 1000 -c 0 -i 12 -a 0 -x {0.0 3.0 -1 ------- null}
r -t 0.596133333333333 -s 1 -d 2 -p cbr -e 1000 -c 0 -i 11 -a 0 -x {0.0 3.0 11 ------- null}
+ -t 0.596133333333333 -s 2 -d 3 -p cbr -e 1000 -c 0 -i 11 -a 0 -x {0.0 3.0 11 ------- null}
- -t 0.596133333333333 -s 2 -d 3 -p cbr -e 1000 -c 0 -i 11 -a 0 -x {0.0 3.0 11 ------- null}
h -t 0.596133333333333 -s 2 -d 3 -p cbr -e 1000 -c 0 -i 11 -a 0 -x {0.0 3.0 -1 ------- null}
r -t 0.5978 -s 0 -d 1 -p cbr -e 1000 -c 0 -i 12 -a 0 -x {0.0 3.0 12 ------- null}
+ -t 0.5978 -s 1 -d 2 -p cbr -e 1000 -c 0 -i 12 -a 0 -x {0.0 3.0 12 ------- null}
- -t 0.5978 -s 1 -d 2 -p cbr -e 1000 -c 0 -i 12 -a 0 -x {0.0 3.0 12 ------- null}
h -t 0.5978 -s 1 -d 2 -p cbr -e 1000 -c 0 -i 12 -a 0 -x {0.0 3.0 -1 ------- null}
r -t 0.597933333333333 -s 2 -d 3 -p cbr -e 1000 -c 0 -i 11 -a 0 -x {0.0 3.0 11 ------- null}
+ -t 0.6 -s 4 -d 1 -p cbr -e 1000 -c 0 -i 13 -a 0 -x {4.0 5.0 0 ------- null}
- -t 0.6 -s 4 -d 1 -p cbr -e 1000 -c 0 -i 13 -a 0 -x {4.0 5.0 0 ------- null}
h -t 0.6 -s 4 -d 1 -p cbr -e 1000 -c 0 -i 13 -a 0 -x {4.0 5.0 -1 ------- null}
r -t 0.6018 -s 4 -d 1 -p cbr -e 1000 -c 0 -i 13 -a 0 -x {4.0 5.0 0 ------- null}
+ -t 0.6018 -s 1 -d 2 -p cbr -e 1000 -c 0 -i 13 -a 0 -x {4.0 5.0 0 ------- null}
- -t 0.603133333333333 -s 1 -d 2 -p cbr -e 1000 -c 0 -i 13 -a 0 -x {4.0 5.0 0 ------- null}
h -t 0.603133333333333 -s 1 -d 2 -p cbr -e 1000 -c 0 -i 13 -a 0 -x {4.0 5.0 -1 ------- null}
+ -t 0.604 -s 0 -d 1 -p cbr -e 1000 -c 0 -i 14 -a 0 -x {0.0 3.0 13 ------- null}
- -t 0.604 -s 0 -d 1 -p cbr -e 1000 -c 0 -i 14 -a 0 -x {0.0 3.0 13 ------- null}
h -t 0.604 -s 0 -d 1 -p cbr -e 1000 -c 0 -i 14 -a 0 -x {0.0 3.0 -1 ------- null}
r -t 0.604133333333333 -s 1 -d 2 -p cbr -e 1000 -c 0 -i 12 -a 0 -x {0.0 3.0 12 ------- null}
+ -t 0.604133333333333 -s 2 -d 3 -p cbr -e 1000 -c 0 -i 12 -a 0 -x {0.0 3.0 12 ------- null}
- -t 0.604133333333333 -s 2 -d 3 -p cbr -e 1000 -c 0 -i 12 -a 0 -x {0.0 3.0 12 ------- null}
h -t 0.604133333333333 -s 2 -d 3 -p cbr -e 1000 -c 0 -i 12 -a 0 -x {0.0 3.0 -1 ------- null}
r -t 0.6058 -s 0 -d 1 -p cbr -e 1000 -c 0 -i 14 -a 0 -x {0.0 3.0 13 ------- null}
+ -t 0.6058 -s 1 -d 2 -p cbr -e 1000 -c 0 -i 14 -a 0 -x {0.0 3.0 13 ------- null}
r -t 0.605933333333333 -s 2 -d 3 -p cbr -e 1000 -c 0 -i 12 -a 0 -x {0.0 3.0 12 ------- null}
+ -t 0.608 -s 4 -d 1 -p cbr -e 1000 -c 0 -i 15 -a 0 -x {4.0 5.0 1 ------- null}
- -t 0.608 -s 4 -d 1 -p cbr -e 1000 -c 0 -i 15 -a 0 -x {4.0 5.0 1 ------- null}
h -t 0.608 -s 4 -d 1 -p cbr -e 1000 -c 0 -i 15 -a 0 -x {4.0 5.0 -1 ------- null}
- -t 0.608466666666667 -s 1 -d 2 -p cbr -e 1000 -c 0 -i 14 -a 0 -x {0.0 3.0 13 ------- null}
h -t 0.608466666666667 -s 1 -d 2 -p cbr -e 1000 -c 0 -i 14 -a 0 -x {0.0 3.0 -1 ------- null}
r -t 0.609466666666667 -s 1 -d 2 -p cbr -e 1000 -c 0 -i 13 -a 0 -x {4.0 5.0 0 ------- null}
+ -t 0.609466666666667 -s 2 -d 5 -p cbr -e 1000 -c 0 -i 13 -a 0 -x {4.0 5.0 0 ------- null}
- -t 0.609466666666667 -s 2 -d 5 -p cbr -e 1000 -c 0 -i 13 -a 0 -x {4.0 5.0 0 ------- null}
h -t 0.609466666666667 -s 2 -d 5 -p cbr -e 1000 -c 0 -i 13 -a 0 -x {4.0 5.0 -1 ------- null}
r -t 0.6098 -s 4 -d 1 -p cbr -e 1000 -c 0 -i 15 -a 0 -x {4.0 5.0 1 ------- null}
+ -t 0.6098 -s 1 -d 2 -p cbr -e 1000 -c 0 -i 15 -a 0 -x {4.0 5.0 1 ------- null}
r -t 0.611266666666667 -s 2 -d 5 -p cbr -e 1000 -c 0 -i 13 -a 0 -x {4.0 5.0 0 ------- null}
+ -t 0.612 -s 0 -d 1 -p cbr -e 1000 -c 0 -i 16 -a 0 -x {0.0 3.0 14 ------- null}
- -t 0.612 -s 0 -d 1 -p cbr -e 1000 -c 0 -i 16 -a 0 -x {0.0 3.0 14 ------- null}
h -t 0.612 -s 0 -d 1 -p cbr -e 1000 -c 0 -i 16 -a 0 -x {0.0 3.0 -1 ------- null}
- -t 0.6138 -s 1 -d 2 -p cbr -e 1000 -c 0 -i 15 -a 0 -x {4.0 5.0 1 ------- null}
h -t 0.6138 -s 1 -d 2 -p cbr -e 1000 -c 0 -i 15 -a 0 -x {4.0 5.0 -1 ------- null}
r -t 0.6138 -s 0 -d 1 -p cbr -e 1000 -c 0 -i 16 -a 0 -x {0.0 3.0 14 ------- null}
+ -t 0.6138 -s 1 -d 2 -p cbr -e 1000 -c 0 -i 16 -a 0 -x {0.0 3.0 14 ------- null}
r -t 0.6148 -s 1 -d 2 -p cbr -e 1000 -c 0 -i 14 -a 0 -x {0.0 3.0 13 ------- null}
+ -t 0.6148 -s 2 -d 3 -p cbr -e 1000 -c 0 -i 14 -a 0 -x {0.0 3.0 13 ------- null}
- -t 0.6148 -s 2 -d 3 -p cbr -e 1000 -c 0 -i 14 -a 0 -x {0.0 3.0 13 ------- null}
h -t 0.6148 -s 2 -d 3 -p cbr -e 1000 -c 0 -i 14 -a 0 -x {0.0 3.0 -1 ------- null}
+ -t 0.616 -s 4 -d 1 -p cbr -e 1000 -c 0 -i 17 -a 0 -x {4.0 5.0 2 ------- null}
- -t 0.616 -s 4 -d 1 -p cbr -e 1000 -c 0 -i 17 -a 0 -x {4.0 5.0 2 ------- null}
h -t 0.616 -s 4 -d 1 -p cbr -e 1000 -c 0 -i 17 -a 0 -x {4.0 5.0 -1 ------- null}
r -t 0.6166 -s 2 -d 3 -p cbr -e 1000 -c 0 -i 14 -a 0 -x {0.0 3.0 13 ------- null}
r -t 0.6178 -s 4 -d 1 -p cbr -e 1000 -c 0 -i 17 -a 0 -x {4.0 5.0 2 ------- null}
+ -t 0.6178 -s 1 -d 2 -p cbr -e 1000 -c 0 -i 17 -a 0 -x {4.0 5.0 2 ------- null}
- -t 0.619133333333333 -s 1 -d 2 -p cbr -e 1000 -c 0 -i 16 -a 0 -x {0.0 3.0 14 ------- null}
h -t 0.619133333333333 -s 1 -d 2 -p cbr -e 1000 -c 0 -i 16 -a 0 -x {0.0 3.0 -1 ------- null}
+ -t 0.62 -s 0 -d 1 -p cbr -e 1000 -c 0 -i 18 -a 0 -x {0.0 3.0 15 ------- null}
- -t 0.62 -s 0 -d 1 -p cbr -e 1000 -c 0 -i 18 -a 0 -x {0.0 3.0 15 ------- null}
h -t 0.62 -s 0 -d 1 -p cbr -e 1000 -c 0 -i 18 -a 0 -x {0.0 3.0 -1 ------- null}
r -t 0.620133333333333 -s 1 -d 2 -p cbr -e 1000 -c 0 -i 15 -a 0 -x {4.0 5.0 1 ------- null}
+ -t 0.620133333333333 -s 2 -d 5 -p cbr -e 1000 -c 0 -i 15 -a 0 -x {4.0 5.0 1 ------- null}
- -t 0.620133333333333 -s 2 -d 5 -p cbr -e 1000 -c 0 -i 15 -a 0 -x {4.0 5.0 1 ------- null}
h -t 0.620133333333333 -s 2 -d 5 -p cbr -e 1000 -c 0 -i 15 -a 0 -x {4.0 5.0 -1 ------- null}
r -t 0.6218 -s 0 -d 1 -p cbr -e 1000 -c 0 -i 18 -a 0 -x {0.0 3.0 15 ------- null}
+ -t 0.6218 -s 1 -d 2 -p cbr -e 1000 -c 0 -i 18 -a 0 -x {0.0 3.0 15 ------- null}
r -t 0.621933333333333 -s 2 -d 5 -p cbr -e 1000 -c 0 -i 15 -a 0 -x {4.0 5.0 1 ------- null}
+ -t 0.624 -s 4 -d 1 -p cbr -e 1000 -c 0 -i 19 -a 0 -x {4.0 5.0 3 ------- null}
- -t 0.624 -s 4 -d 1 -p cbr -e 1000 -c 0 -i 19 -a 0 -x {4.0 5.0 3 ------- null}
h -t 0.624 -s 4 -d 1 -p cbr -e 1000 -c 0 -i 19 -a 0 -x {4.0 5.0 -1 ------- null}
- -t 0.624466666666667 -s 1 -d 2 -p cbr -e 1000 -c 0 -i 17 -a 0 -x {4.0 5.0 2 ------- null}
h -t 0.624466666666667 -s 1 -d 2 -p cbr -e 1000 -c 0 -i 17 -a 0 -x {4.0 5.0 -1 ------- null}
r -t 0.625466666666667 -s 1 -d 2 -p cbr -e 1000 -c 0 -i 16 -a 0 -x {0.0 3.0 14 ------- null}
+ -t 0.625466666666667 -s 2 -d 3 -p cbr -e 1000 -c 0 -i 16 -a 0 -x {0.0 3.0 14 ------- null}
- -t 0.625466666666667 -s 2 -d 3 -p cbr -e 1000 -c 0 -i 16 -a 0 -x {0.0 3.0 14 ------- null}
h -t 0.625466666666667 -s 2 -d 3 -p cbr -e 1000 -c 0 -i 16 -a 0 -x {0.0 3.0 -1 ------- null}
r -t 0.6258 -s 4 -d 1 -p cbr -e 1000 -c 0 -i 19 -a 0 -x {4.0 5.0 3 ------- null}
+ -t 0.6258 -s 1 -d 2 -p cbr -e 1000 -c 0 -i 19 -a 0 -x {4.0 5.0 3 ------- null}
r -t 0.627266666666667 -s 2 -d 3 -p cbr -e 1000 -c 0 -i 16 -a 0 -x {0.0 3.0 14 ------- null}
+ -t 0.628 -s 0 -d 1 -p cbr -e 1000 -c 0 -i 20 -a 0 -x {0.0 3.0 16 ------- null}
- -t 0.628 -s 0 -d 1 -p cbr -e 1000 -c 0 -i 20 -a 0 -x {0.0 3.0 16 ------- null}
h -t 0.628 -s 0 -d 1 -p cbr -e 1000 -c 0 -i 20 -a 0 -x {0.0 3.0 -1 ------- null}
- -t 0.6298 -s 1 -d 2 -p cbr -e 1000 -c 0 -i 18 -a 0 -x {0.0 3.0 15 ------- null}
h -t 0.6298 -s 1 -d 2 -p cbr -e 1000 -c 0 -i 18 -a 0 -x {0.0 3.0 -1 ------- null}
r -t 0.6298 -s 0 -d 1 -p cbr -e 1000 -c 0 -i 20 -a 0 -x {0.0 3.0 16 ------- null}
+ -t 0.6298 -s 1 -d 2 -p cbr -e 1000 -c 0 -i 20 -a 0 -x {0.0 3.0 16 ------- null}
r -t 0.6308 -s 1 -d 2 -p cbr -e 1000 -c 0 -i 17 -a 0 -x {4.0 5.0 2 ------- null}
+ -t 0.6308 -s 2 -d 5 -p cbr -e 1000 -c 0 -i 17 -a 0 -x {4.0 5.0 2 ------- null}
- -t 0.6308 -s 2 -d 5 -p cbr -e 1000 -c 0 -i 17 -a 0 -x {4.0 5.0 2 ------- null}
h -t 0.6308 -s 2 -d 5 -p cbr -e 1000 -c 0 -i 17 -a 0 -x {4.0 5.0 -1 ------- null}
+ -t 0.632 -s 4 -d 1 -p cbr -e 1000 -c 0 -i 21 -a 0 -x {4.0 5.0 4 ------- null}
- -t 0.632 -s 4 -d 1 -p cbr -e 1000 -c 0 -i 21 -a 0 -x {4.0 5.0 4 ------- null}
h -t 0.632 -s 4 -d 1 -p cbr -e 1000 -c 0 -i 21 -a 0 -x {4.0 5.0 -1 ------- null}
r -t 0.6326 -s 2 -d 5 -p cbr -e 1000 -c 0 -i 17 -a 0 -x {4.0 5.0 2 ------- null}
r -t 0.6338 -s 4 -d 1 -p cbr -e 1000 -c 0 -i 21 -a 0 -x {4.0 5.0 4 ------- null}
+ -t 0.6338 -s 1 -d 2 -p cbr -e 1000 -c 0 -i 21 -a 0 -x {4.0 5.0 4 ------- null}
- -t 0.635133333333333 -s 1 -d 2 -p cbr -e 1000 -c 0 -i 19 -a 0 -x {4.0 5.0 3 ------- null}
h -t 0.635133333333333 -s 1 -d 2 -p cbr -e 1000 -c 0 -i 19 -a 0 -x {4.0 5.0 -1 ------- null}
+ -t 0.636 -s 0 -d 1 -p cbr -e 1000 -c 0 -i 22 -a 0 -x {0.0 3.0 17 ------- null}
- -t 0.636 -s 0 -d 1 -p cbr -e 1000 -c 0 -i 22 -a 0 -x {0.0 3.0 17 ------- null}
h -t 0.636 -s 0 -d 1 -p cbr -e 1000 -c 0 -i 22 -a 0 -x {0.0 3.0 -1 ------- null}
r -t 0.636133333333333 -s 1 -d 2 -p cbr -e 1000 -c 0 -i 18 -a 0 -x {0.0 3.0 15 ------- null}
+ -t 0.636133333333333 -s 2 -d 3 -p cbr -e 1000 -c 0 -i 18 -a 0 -x {0.0 3.0 15 ------- null}
- -t 0.636133333333333 -s 2 -d 3 -p cbr -e 1000 -c 0 -i 18 -a 0 -x {0.0 3.0 15 ------- null}
h -t 0.636133333333333 -s 2 -d 3 -p cbr -e 1000 -c 0 -i 18 -a 0 -x {0.0 3.0 -1 ------- null}
r -t 0.6378 -s 0 -d 1 -p cbr -e 1000 -c 0 -i 22 -a 0 -x {0.0 3.0 17 ------- null}
+ -t 0.6378 -s 1 -d 2 -p cbr -e 1000 -c 0 -i 22 -a 0 -x {0.0 3.0 17 ------- null}
r -t 0.637933333333333 -s 2 -d 3 -p cbr -e 1000 -c 0 -i 18 -a 0 -x {0.0 3.0 15 ------- null}
+ -t 0.64 -s 4 -d 1 -p cbr -e 1000 -c 0 -i 23 -a 0 -x {4.0 5.0 5 ------- null}
- -t 0.64 -s 4 -d 1 -p cbr -e 1000 -c 0 -i 23 -a 0 -x {4.0 5.0 5 ------- null}
h -t 0.64 -s 4 -d 1 -p cbr -e 1000 -c 0 -i 23 -a 0 -x {4.0 5.0 -1 ------- null}
- -t 0.640466666666667 -s 1 -d 2 -p cbr -e 1000 -c 0 -i 20 -a 0 -x {0.0 3.0 16 ------- null}
h -t 0.640466666666667 -s 1 -d 2 -p cbr -e 1000 -c 0 -i 20 -a 0 -x {0.0 3.0 -1 ------- null}
r -t 0.641466666666667 -s 1 -d 2 -p cbr -e 1000 -c 0 -i 19 -a 0 -x {4.0 5.0 3 ------- null}
+ -t 0.641466666666667 -s 2 -d 5 -p cbr -e 1000 -c 0 -i 19 -a 0 -x {4.0 5.0 3 ------- null}
- -t 0.641466666666667 -s 2 -d 5 -p cbr -e 1000 -c 0 -i 19 -a 0 -x {4.0 5.0 3 ------- null}
h -t 0.641466666666667 -s 2 -d 5 -p cbr -e 1000 -c 0 -i 19 -a 0 -x {4.0 5.0 -1 ------- null}
r -t 0.6418 -s 4 -d 1 -p cbr -e 1000 -c 0 -i 23 -a 0 -x {4.0 5.0 5 ------- null}
+ -t 0.6418 -s 1 -d 2 -p cbr -e 1000 -c 0 -i 23 -a 0 -x {4.0 5.0 5 ------- null}
r -t 0.643266666666667 -s 2 -d 5 -p cbr -e 1000 -c 0 -i 19 -a 0 -x {4.0 5.0 3 ------- null}
+ -t 0.644 -s 0 -d 1 -p cbr -e 1000 -c 0 -i 24 -a 0 -x {0.0 3.0 18 ------- null}
- -t 0.644 -s 0 -d 1 -p cbr -e 1000 -c 0 -i 24 -a 0 -x {0.0 3.0 18 ------- null}
h -t 0.644 -s 0 -d 1 -p cbr -e 1000 -c 0 -i 24 -a 0 -x {0.0 3.0 -1 ------- null}
- -t 0.6458 -s 1 -d 2 -p cbr -e 1000 -c 0 -i 21 -a 0 -x {4.0 5.0 4 ------- null}
h -t 0.6458 -s 1 -d 2 -p cbr -e 1000 -c 0 -i 21 -a 0 -x {4.0 5.0 -1 ------- null}
r -t 0.6458 -s 0 -d 1 -p cbr -e 1000 -c 0 -i 24 -a 0 -x {0.0 3.0 18 ------- null}
+ -t 0.6458 -s 1 -d 2 -p cbr -e 1000 -c 0 -i 24 -a 0 -x {0.0 3.0 18 ------- null}
r -t 0.6468 -s 1 -d 2 -p cbr -e 1000 -c 0 -i 20 -a 0 -x {0.0 3.0 16 ------- null}
+ -t 0.6468 -s 2 -d 3 -p cbr -e 1000 -c 0 -i 20 -a 0 -x {0.0 3.0 16 ------- null}
- -t 0.6468 -s 2 -d 3 -p cbr -e 1000 -c 0 -i 20 -a 0 -x {0.0 3.0 16 ------- null}
h -t 0.6468 -s 2 -d 3 -p cbr -e 1000 -c 0 -i 20 -a 0 -x {0.0 3.0 -1 ------- null}
+ -t 0.648 -s 4 -d 1 -p cbr -e 1000 -c 0 -i 25 -a 0 -x {4.0 5.0 6 ------- null}
- -t 0.648 -s 4 -d 1 -p cbr -e 1000 -c 0 -i 25 -a 0 -x {4.0 5.0 6 ------- null}
h -t 0.648 -s 4 -d 1 -p cbr -e 1000 -c 0 -i 25 -a 0 -x {4.0 5.0 -1 ------- null}
r -t 0.6486 -s 2 -d 3 -p cbr -e 1000 -c 0 -i 20 -a 0 -x {0.0 3.0 16 ------- null}
r -t 0.6498 -s 4 -d 1 -p cbr -e 1000 -c 0 -i 25 -a 0 -x {4.0 5.0 6 ------- null}
+ -t 0.6498 -s 1 -d 2 -p cbr -e 1000 -c 0 -i 25 -a 0 -x {4.0 5.0 6 ------- null}
- -t 0.651133333333333 -s 1 -d 2 -p cbr -e 1000 -c 0 -i 22 -a 0 -x {0.0 3.0 17 ------- null}
h -t 0.651133333333333 -s 1 -d 2 -p cbr -e 1000 -c 0 -i 22 -a 0 -x {0.0 3.0 -1 ------- null}
+ -t 0.652 -s 0 -d 1 -p cbr -e 1000 -c 0 -i 26 -a 0 -x {0.0 3.0 19 ------- null}
- -t 0.652 -s 0 -d 1 -p cbr -e 1000 -c 0 -i 26 -a 0 -x {0.0 3.0 19 ------- null}
h -t 0.652 -s 0 -d 1 -p cbr -e 1000 -c 0 -i 26 -a 0 -x {0.0 3.0 -1 ------- null}
r -t 0.652133333333333 -s 1 -d 2 -p cbr -e 1000 -c 0 -i 21 -a 0 -x {4.0 5.0 4 ------- null}
+ -t 0.652133333333333 -s 2 -d 5 -p cbr -e 1000 -c 0 -i 21 -a 0 -x {4.0 5.0 4 ------- null}
- -t 0.652133333333333 -s 2 -d 5 -p cbr -e 1000 -c 0 -i 21 -a 0 -x {4.0 5.0 4 ------- null}
h -t 0.652133333333333 -s 2 -d 5 -p cbr -e 1000 -c 0 -i 21 -a 0 -x {4.0 5.0 -1 ------- null}
r -t 0.6538 -s 0 -d 1 -p cbr -e 1000 -c 0 -i 26 -a 0 -x {0.0 3.0 19 ------- null}
+ -t 0.6538 -s 1 -d 2 -p cbr -e 1000 -c 0 -i 26 -a 0 -x {0.0 3.0 19 ------- null}
r -t 0.653933333333333 -s 2 -d 5 -p cbr -e 1000 -c 0 -i 21 -a 0 -x {4.0 5.0 4 ------- null}
+ -t 0.656 -s 4 -d 1 -p cbr -e 1000 -c 0 -i 27 -a 0 -x {4.0 5.0 7 ------- null}
- -t 0.656 -s 4 -d 1 -p cbr -e 1000 -c 0 -i 27 -a 0 -x {4.0 5.0 7 ------- null}
h -t 0.656 -s 4 -d 1 -p cbr -e 1000 -c 0 -i 27 -a 0 -x {4.0 5.0 -1 ------- null}
- -t 0.656466666666666 -s 1 -d 2 -p cbr -e 1000 -c 0 -i 23 -a 0 -x {4.0 5.0 5 ------- null}
h -t 0.656466666666666 -s 1 -d 2 -p cbr -e 1000 -c 0 -i 23 -a 0 -x {4.0 5.0 -1 ------- null}
r -t 0.657466666666666 -s 1 -d 2 -p cbr -e 1000 -c 0 -i 22 -a 0 -x {0.0 3.0 17 ------- null}
+ -t 0.657466666666666 -s 2 -d 3 -p cbr -e 1000 -c 0 -i 22 -a 0 -x {0.0 3.0 17 ------- null}
- -t 0.657466666666666 -s 2 -d 3 -p cbr -e 1000 -c 0 -i 22 -a 0 -x {0.0 3.0 17 ------- null}
h -t 0.657466666666666 -s 2 -d 3 -p cbr -e 1000 -c 0 -i 22 -a 0 -x {0.0 3.0 -1 ------- null}
r -t 0.6578 -s 4 -d 1 -p cbr -e 1000 -c 0 -i 27 -a 0 -x {4.0 5.0 7 ------- null}
+ -t 0.6578 -s 1 -d 2 -p cbr -e 1000 -c 0 -i 27 -a 0 -x {4.0 5.0 7 ------- null}
r -t 0.659266666666666 -s 2 -d 3 -p cbr -e 1000 -c 0 -i 22 -a 0 -x {0.0 3.0 17 ------- null}
+ -t 0.66 -s 0 -d 1 -p cbr -e 1000 -c 0 -i 28 -a 0 -x {0.0 3.0 20 ------- null}
- -t 0.66 -s 0 -d 1 -p cbr -e 1000 -c 0 -i 28 -a 0 -x {0.0 3.0 20 ------- null}
h -t 0.66 -s 0 -d 1 -p cbr -e 1000 -c 0 -i 28 -a 0 -x {0.0 3.0 -1 ------- null}
- -t 0.6618 -s 1 -d 2 -p cbr -e 1000 -c 0 -i 24 -a 0 -x {0.0 3.0 18 ------- null}
h -t 0.6618 -s 1 -d 2 -p cbr -e 1000 -c 0 -i 24 -a 0 -x {0.0 3.0 -1 ------- null}
r -t 0.6618 -s 0 -d 1 -p cbr -e 1000 -c 0 -i 28 -a 0 -x {0.0 3.0 20 ------- null}
+ -t 0.6618 -s 1 -d 2 -p cbr -e 1000 -c 0 -i 28 -a 0 -x {0.0 3.0 20 ------- null}
r -t 0.6628 -s 1 -d 2 -p cbr -e 1000 -c 0 -i 23 -a 0 -x {4.0 5.0 5 ------- null}
+ -t 0.6628 -s 2 -d 5 -p cbr -e 1000 -c 0 -i 23 -a 0 -x {4.0 5.0 5 ------- null}
- -t 0.6628 -s 2 -d 5 -p cbr -e 1000 -c 0 -i 23 -a 0 -x {4.0 5.0 5 ------- null}
h -t 0.6628 -s 2 -d 5 -p cbr -e 1000 -c 0 -i 23 -a 0 -x {4.0 5.0 -1 ------- null}
+ -t 0.664 -s 4 -d 1 -p cbr -e 1000 -c 0 -i 29 -a 0 -x {4.0 5.0 8 ------- null}
- -t 0.664 -s 4 -d 1 -p cbr -e 1000 -c 0 -i 29 -a 0 -x {4.0 5.0 8 ------- null}
h -t 0.664 -s 4 -d 1 -p cbr -e 1000 -c 0 -i 29 -a 0 -x {4.0 5.0 -1 ------- null}
r -t 0.6646 -s 2 -d 5 -p cbr -e 1000 -c 0 -i 23 -a 0 -x {4.0 5.0 5 ------- null}
r -t 0.6658 -s 4 -d 1 -p cbr -e 1000 -c 0 -i 29 -a 0 -x {4.0 5.0 8 ------- null}
+ -t 0.6658 -s 1 -d 2 -p cbr -e 1000 -c 0 -i 29 -a 0 -x {4.0 5.0 8 ------- null}
- -t 0.667133333333333 -s 1 -d 2 -p cbr -e 1000 -c 0 -i 25 -a 0 -x {4.0 5.0 6 ------- null}
h -t 0.667133333333333 -s 1 -d 2 -p cbr -e 1000 -c 0 -i 25 -a 0 -x {4.0 5.0 -1 ------- null}
+ -t 0.668 -s 0 -d 1 -p cbr -e 1000 -c 0 -i 30 -a 0 -x {0.0 3.0 21 ------- null}
- -t 0.668 -s 0 -d 1 -p cbr -e 1000 -c 0 -i 30 -a 0 -x {0.0 3.0 21 ------- null}
h -t 0.668 -s 0 -d 1 -p cbr -e 1000 -c 0 -i 30 -a 0 -x {0.0 3.0 -1 ------- null}
r -t 0.668133333333333 -s 1 -d 2 -p cbr -e 1000 -c 0 -i 24 -a 0 -x {0.0 3.0 18 ------- null}
+ -t 0.668133333333333 -s 2 -d 3 -p cbr -e 1000 -c 0 -i 24 -a 0 -x {0.0 3.0 18 ------- null}
- -t 0.668133333333333 -s 2 -d 3 -p cbr -e 1000 -c 0 -i 24 -a 0 -x {0.0 3.0 18 ------- null}
h -t 0.668133333333333 -s 2 -d 3 -p cbr -e 1000 -c 0 -i 24 -a 0 -x {0.0 3.0 -1 ------- null}
r -t 0.6698 -s 0 -d 1 -p cbr -e 1000 -c 0 -i 30 -a 0 -x {0.0 3.0 21 ------- null}
+ -t 0.6698 -s 1 -d 2 -p cbr -e 1000 -c 0 -i 30 -a 0 -x {0.0 3.0 21 ------- null}
r -t 0.669933333333333 -s 2 -d 3 -p cbr -e 1000 -c 0 -i 24 -a 0 -x {0.0 3.0 18 ------- null}
+ -t 0.672 -s 4 -d 1 -p cbr -e 1000 -c 0 -i 31 -a 0 -x {4.0 5.0 9 ------- null}
- -t 0.672 -s 4 -d 1 -p cbr -e 1000 -c 0 -i 31 -a 0 -x {4.0 5.0 9 ------- null}
h -t 0.672 -s 4 -d 1 -p cbr -e 1000 -c 0 -i 31 -a 0 -x {4.0 5.0 -1 ------- null}
- -t 0.672466666666666 -s 1 -d 2 -p cbr -e 1000 -c 0 -i 26 -a 0 -x {0.0 3.0 19 ------- null}
h -t 0.672466666666666 -s 1 -d 2 -p cbr -e 1000 -c 0 -i 26 -a 0 -x {0.0 3.0 -1 ------- null}
r -t 0.673466666666666 -s 1 -d 2 -p cbr -e 1000 -c 0 -i 25 -a 0 -x {4.0 5.0 6 ------- null}
+ -t 0.673466666666666 -s 2 -d 5 -p cbr -e 1000 -c 0 -i 25 -a 0 -x {4.0 5.0 6 ------- null}
- -t 0.673466666666666 -s 2 -d 5 -p cbr -e 1000 -c 0 -i 25 -a 0 -x {4.0 5.0 6 ------- null}
h -t 0.673466666666666 -s 2 -d 5 -p cbr -e 1000 -c 0 -i 25 -a 0 -x {4.0 5.0 -1 ------- null}